ITEM: TIMESTEP
0
ITEM: NUMBER OF ATOMS
4000
ITEM: BOX BOUNDS pp pp pp
0.0000000000000000e+00 3.5358469999999997e+01
0.0000000000000000e+00 3.5358469999999997e+01
0.0000000000000000e+00 3.5358469999999997e+01
ITEM: ATOMS id type x y z c_peratom
1 1 0 0 0 -9.20131
2 3 1.76792 1.76792 0 -8.67802
3 2 1.76792 0 1.76792 -5.12882
4 3 0 1.76792 1.76792 -8.49122
101 1 0 0 3.53585 -8.80886
102 3 1.76792 1.76792 3.53585 -8.38823
5 2 3.53585 0 0 -5.26252
6 2 5.30377 1.76792 0 -4.48591
7 1 5.30377 0 1.76792 -10.1835
8 1 3.53585 1.76792 1.76792 -8.94267
105 1 3.53585 0 3.53585 -8.55825
106 2 5.30377 1.76792 3.53585 -4.85189
9 3 7.07169 0 0 -8.55297
10 3 8.83962 1.76792 0 -8.10921
11 1 8.83962 0 1.76792 -8.8154
12 2 7.07169 1.76792 1.76792 -4.98071
109 2 7.07169 0 3.53585 -4.72475
110 1 8.83962 1.76792 3.53585 -9.31892
13 1 10.6075 0 0 -8.31159
14 3 12.3755 1.76792 0 -8.32717
15 2 12.3755 0 1.76792 -4.85953
16 3 10.6075 1.76792 1.76792 -8.17989
113 2 10.6075 0 3.53585 -4.17427
114 1 12.3755 1.76792 3.53585 -9.58919
17 2 14.1434 0 0 -5.11824
18 2 15.9113 1.76792 0 -4.46368
19 3 15.9113 0 1.76792 -8.1929
20 1 14.1434 1.76792 1.76792 -8.84189
117 2 14.1434 0 3.53585 -4.35492
118 3 15.9113 1.76792 3.53585 -8.07863
21 2 0 3.53585 0 -4.86508
22 2 1.76792 5.30377 0 -5.02124
23 1 1.76792 3.53585 1.76792 -8.87425
24 1 0 5.30377 1.76792 -9.45025
121 3 0 3.53585 3.53585 -8.35747
122 2 1.76792 5.30377 3.53585 -4.4711
25 2 3.53585 3.53585 0 -4.40861
26 2 5.30377 5.30377 0 -4.38621
27 1 5.30377 3.53585 1.76792 -9.49811
28 1 3.53585 5.30377 1.76792 -9.70685
125 2 3.53585 3.53585 3.53585 -4.34424
126 3 5.30377 5.30377 3.53585 -8.62014
29 3 7.07169 3.53585 0 -8.33403
30 3 8.83962 5.30377 0 -7.72651
31 1 8.83962 3.53585 1.76792 -8.60122
32 1 7.07169 5.30377 1.76792 -8.66317
129 2 7.07169 3.53585 3.53585 -4.50875
130 2 8.83962 5.30377 3.53585 -4.90587
33 1 10.6075 3.53585 0 -8.14385
34 3 12.3755 5.30377 0 -8.35058
35 3 12.3755 3.53585 1.76792 -8.38109
36 3 10.6075 5.30377 1.76792 -8.22191
133 2 10.6075 3.53585 3.53585 -4.6678
134 1 12.3755 5.30377 3.53585 -9.31081
37 2 14.1434 3.53585 0 -4.76828
38 3 15.9113 5.30377 0 -8.05932
39 1 15.9113 3.53585 1.76792 -8.09701
40 3 14.1434 5.30377 1.76792 -8.43816
137 2 14.1434 3.53585 3.53585 -4.28783
138 3 15.9113 5.30377 3.53585 -7.7745
41 2 0 7.07169 0 -4.9706
42 1 1.76792 8.83962 0 -8.99717
43 2 1.76792 7.07169 1.76792 -5.18904
44 2 0 8.83962 1.76792 -4.775
141 3 0 7.07169 3.53585 -8.19587
142 1 1.76792 8.83962 3.53585 -9.31097
45 2 3.53585 7.07169 0 -5.06434
46 1 5.30377 8.83962 0 -8.8813
47 3 5.30377 7.07169 1.76792 -8.48222
48 3 3.53585 8.83962 1.76792 -8.10909
145 2 3.53585 7.07169 3.53585 -5.03
146 1 5.30377 8.83962 3.53585 -9.63503
49 3 7.07169 7.07169 0 -8.34076
50 3 8.83962 8.83962 0 -8.59058
51 1 8.83962 7.07169 1.76792 -9.14483
52 2 7.07169 8.83962 1.76792 -5.07353
149 2 7.07169 7.07169 3.53585 -4.99434
150 2 8.83962 8.83962 3.53585 -5.25427
53 1 10.6075 7.07169 0 -9.00377
54 2 12.3755 8.83962 0 -5.24069
55 2 12.3755 7.07169 1.76792 -5.35168
56 2 10.6075 8.83962 1.76792 -4.63104
153 2 10.6075 7.07169 3.53585 -4.90238
154 1 12.3755 8.83962 3.53585 -9.15035
57 2 14.1434 7.07169 0 -5.4276
58 2 15.9113 8.83962 0 -4.53654
59 1 15.9113 7.07169 1.76792 -8.39083
60 2 14.1434 8.83962 1.76792 -5.28306
157 3 14.1434 7.07169 3.53585 -7.95526
158 3 15.9113 8.83962 3.53585 -8.21785
61 1 0 10.6075 0 -8.72759
62 3 1.76792 12.3755 0 -7.65926
63 3 1.76792 10.6075 1.76792 -7.75807
64 3 0 12.3755 1.76792 -8.0753
161 3 0 10.6075 3.53585 -8.45876
162 1 1.76792 12.3755 3.53585 -8.77812
65 1 3.53585 10.6075 0 -7.2121
66 3 5.30377 12.3755 0 -7.7061
67 3 5.30377 10.6075 1.76792 -8.28877
68 3 3.53585 12.3755 1.76792 -8.19705
165 2 3.53585 10.6075 3.53585 -4.98192
166 2 5.30377 12.3755 3.53585 -5.30512
69 2 7.07169 10.6075 0 -4.85642
70 3 8.83962 12.3755 0 -8.01369
71 1 8.83962 10.6075 1.76792 -8.98241
72 1 7.07169 12.3755 1.76792 -8.80781
169 2 7.07169 10.6075 3.53585 -5.27858
170 2 8.83962 12.3755 3.53585 -4.97774
73 1 10.6075 10.6075 0 -8.79662
74 3 12.3755 12.3755 0 -8.17399
75 3 12.3755 10.6075 1.76792 -8.63814
76 3 10.6075 12.3755 1.76792 -8.20276
173 3 10.6075 10.6075 3.53585 -8.48504
174 1 12.3755 12.3755 3.53585 -8.52401
77 1 14.1434 10.6075 0 -9.41159
78 2 15.9113 12.3755 0 -4.89162
79 2 15.9113 10.6075 1.76792 -5.43886
80 2 14.1434 12.3755 1.76792 -5.36086
177 2 14.1434 10.6075 3.53585 -4.6157
178 1 15.9113 12.3755 3.53585 -9.71438
81 1 0 14.1434 0 -9.15578
82 3 1.76792 15.9113 0 -8.22791
83 3 1.76792 14.1434 1.76792 -8.30606
84 2 0 15.9113 1.76792 -5.18835
181 2 0 14.1434 3.53585 -5.02948
182 2 1.76792 15.9113 3.53585 -5.19564
85 3 3.53585 14.1434 0 -7.8471
86 2 5.30377 15.9113 0 -4.7086
87 1 5.30377 14.1434 1.76792 -8.33084
88 1 3.53585 15.9113 1.76792 -9.02252
185 3 3.53585 14.1434 3.53585 -7.9994
186 2 5.30377 15.9113 3.53585 -4.50114
89 3 7.07169 14.1434 0 -8.13622
90 1 8.83962 15.9113 0 -8.4261
91 2 8.83962 14.1434 1.76792 -5.13685
92 3 7.07169 15.9113 1.76792 -8.26668
189 2 7.07169 14.1434 3.53585 -4.81039
190 1 8.83962 15.9113 3.53585 -7.97348
93 3 10.6075 14.1434 0 -8.51405
94 2 12.3755 15.9113 0 -6.1549
95 1 12.3755 14.1434 1.76792 -9.50063
96 2 10.6075 15.9113 1.76792 -5.12675
193 3 10.6075 14.1434 3.53585 -8.00945
194 2 12.3755 15.9113 3.53585 -5.43967
97 2 14.1434 14.1434 0 -5.72337
98 1 15.9113 15.9113 0 -9.33578
99 2 15.9113 14.1434 1.76792 -5.62958
100 2 14.1434 15.9113 1.76792 -5.05199
197 2 14.1434 14.1434 3.53585 -4.70129
198 1 15.9113 15.9113 3.53585 -9.77742
103 3 1.76792 0 5.30377 -8.35366
104 2 0 1.76792 5.30377 -4.76404
201 2 0 0 7.07169 -5.05309
202 1 1.76792 1.76792 7.07169 -9.45801
107 1 5.30377 0 5.30377 -9.67131
108 3 3.53585 1.76792 5.30377 -8.33018
203 2 3.53585 0 7.07169 -4.67367
204 1 5.30377 1.76792 7.07169 -9.17867
111 1 8.83962 0 5.30377 -8.94173
112 2 7.07169 1.76792 5.30377 -4.85139
205 2 7.07169 0 7.07169 -4.25266
206 1 8.83962 1.76792 7.07169 -9.89424
115 2 12.3755 0 5.30377 -4.71033
116 1 10.6075 1.76792 5.30377 -9.13552
207 2 10.6075 0 7.07169 -4.50507
208 1 12.3755 1.76792 7.07169 -10.3532
119 1 15.9113 0 5.30377 -8.25257
120 3 14.1434 1.76792 5.30377 -8.50428
209 3 14.1434 0 7.07169 -8.45133
210 3 15.9113 1.76792 7.07169 -8.14246
123 1 1.76792 3.53585 5.30377 -8.36818
124 1 0 5.30377 5.30377 -7.88491
211 2 0 3.53585 7.07169 -4.27035
212 3 1.76792 5.30377 7.07169 -8.25825
127 1 5.30377 3.53585 5.30377 -9.35013
128 3 3.53585 5.30377 5.30377 -8.56022
213 3 3.53585 3.53585 7.07169 -8.17023
214 3 5.30377 5.30377 7.07169 -8.443
131 1 8.83962 3.53585 5.30377 -9.89813
132 1 7.07169 5.30377 5.30377 -8.90185
215 2 7.07169 3.53585 7.07169 -4.22257
216 1 8.83962 5.30377 7.07169 -9.27401
135 2 12.3755 3.53585 5.30377 -5.11412
136 2 10.6075 5.30377 5.30377 -4.96659
217 2 10.6075 3.53585 7.07169 -4.37113
218 1 12.3755 5.30377 7.07169 -9.88687
139 1 15.9113 3.53585 5.30377 -8.35862
140 3 14.1434 5.30377 5.30377 -7.97771
219 2 14.1434 3.53585 7.07169 -4.71684
220 3 15.9113 5.30377 7.07169 -8.05048
143 3 1.76792 7.07169 5.30377 -8.45428
144 2 0 8.83962 5.30377 -4.64606
221 3 0 7.07169 7.07169 -8.23193
222 1 1.76792 8.83962 7.07169 -8.34146
147 2 5.30377 7.07169 5.30377 -4.92107
148 3 3.53585 8.83962 5.30377 -8.33158
223 1 3.53585 7.07169 7.07169 -8.63479
224 2 5.30377 8.83962 7.07169 -4.61316
151 1 8.83962 7.07169 5.30377 -9.82497
152 2 7.07169 8.83962 5.30377 -4.98599
225 1 7.07169 7.07169 7.07169 -9.37995
226 3 8.83962 8.83962 7.07169 -8.16714
155 1 12.3755 7.07169 5.30377 -8.44891
156 3 10.6075 8.83962 5.30377 -8.36104
227 2 10.6075 7.07169 7.07169 -4.74857
228 3 12.3755 8.83962 7.07169 -8.42865
159 1 15.9113 7.07169 5.30377 -7.67842
160 3 14.1434 8.83962 5.30377 -8.14446
229 2 14.1434 7.07169 7.07169 -4.41716
230 3 15.9113 8.83962 7.07169 -8.16241
163 2 1.76792 10.6075 5.30377 -4.65114
164 2 0 12.3755 5.30377 -5.05814
231 1 0 10.6075 7.07169 -9.36454
232 2 1.76792 12.3755 7.07169 -4.90834
167 3 5.30377 10.6075 5.30377 -8.8787
168 2 3.53585 12.3755 5.30377 -4.85197
233 1 3.53585 10.6075 7.07169 -9.1459
234 3 5.30377 12.3755 7.07169 -8.49654
171 1 8.83962 10.6075 5.30377 -8.8653
172 2 7.07169 12.3755 5.30377 -5.05543
235 1 7.07169 10.6075 7.07169 -9.132
236 3 8.83962 12.3755 7.07169 -8.14033
175 2 12.3755 10.6075 5.30377 -4.84265
176 3 10.6075 12.3755 5.30377 -8.10791
237 1 10.6075 10.6075 7.07169 -8.05504
238 2 12.3755 12.3755 7.07169 -4.78139
179 1 15.9113 10.6075 5.30377 -8.07364
180 1 14.1434 12.3755 5.30377 -8.67533
239 3 14.1434 10.6075 7.07169 -8.6175
240 1 15.9113 12.3755 7.07169 -9.02119
183 1 1.76792 14.1434 5.30377 -9.22269
184 2 0 15.9113 5.30377 -4.98382
241 2 0 14.1434 7.07169 -4.83178
242 3 1.76792 15.9113 7.07169 -8.50386
187 1 5.30377 14.1434 5.30377 -9.20013
188 1 3.53585 15.9113 5.30377 -8.43258
243 3 3.53585 14.1434 7.07169 -7.98284
244 3 5.30377 15.9113 7.07169 -8.11698
191 1 8.83962 14.1434 5.30377 -8.69261
192 3 7.07169 15.9113 5.30377 -8.0915
245 2 7.07169 14.1434 7.07169 -4.66927
246 3 8.83962 15.9113 7.07169 -8.1498
195 1 12.3755 14.1434 5.30377 -9.39139
196 3 10.6075 15.9113 5.30377 -8.16575
247 3 10.6075 14.1434 7.07169 -8.26829
248 2 12.3755 15.9113 7.07169 -4.7842
199 1 15.9113 14.1434 5.30377 -9.11215
200 2 14.1434 15.9113 5.30377 -4.70465
249 2 14.1434 14.1434 7.07169 -4.56598
250 1 15.9113 15.9113 7.07169 -9.70644
251 2 1.76792 0 8.83962 -4.49441
252 1 0 1.76792 8.83962 -9.08162
301 3 0 0 10.6075 -8.48295
302 1 1.76792 1.76792 10.6075 -8.29081
303 3 1.76792 0 12.3755 -8.24919
304 1 0 1.76792 12.3755 -8.5211
253 1 5.30377 0 8.83962 -8.99425
254 2 3.53585 1.76792 8.83962 -4.62705
305 1 3.53585 0 10.6075 -7.74586
306 3 5.30377 1.76792 10.6075 -8.46822
307 3 5.30377 0 12.3755 -7.99888
308 3 3.53585 1.76792 12.3755 -8.02861
255 3 8.83962 0 8.83962 -8.93874
256 2 7.07169 1.76792 8.83962 -4.88222
309 2 7.07169 0 10.6075 -4.49905
310 3 8.83962 1.76792 10.6075 -8.59584
311 3 8.83962 0 12.3755 -8.09527
312 1 7.07169 1.76792 12.3755 -8.30982
257 2 12.3755 0 8.83962 -5.03749
258 2 10.6075 1.76792 8.83962 -5.21406
313 2 10.6075 0 10.6075 -5.06365
314 1 12.3755 1.76792 10.6075 -9.70417
315 2 12.3755 0 12.3755 -4.36189
316 3 10.6075 1.76792 12.3755 -8.36308
259 1 15.9113 0 8.83962 -8.56631
260 2 14.1434 1.76792 8.83962 -4.97323
317 3 14.1434 0 10.6075 -8.25031
318 2 15.9113 1.76792 10.6075 -5.21118
319 3 15.9113 0 12.3755 -8.13111
320 1 14.1434 1.76792 12.3755 -9.35456
261 2 1.76792 3.53585 8.83962 -5.00187
262 1 0 5.30377 8.83962 -9.40956
321 2 0 3.53585 10.6075 -3.94254
322 2 1.76792 5.30377 10.6075 -4.50083
323 1 1.76792 3.53585 12.3755 -8.62982
324 1 0 5.30377 12.3755 -9.37342
263 1 5.30377 3.53585 8.83962 -9.03904
264 1 3.53585 5.30377 8.83962 -8.94044
325 3 3.53585 3.53585 10.6075 -8.4245
326 2 5.30377 5.30377 10.6075 -4.50596
327 3 5.30377 3.53585 12.3755 -8.55114
328 1 3.53585 5.30377 12.3755 -9.14523
265 1 8.83962 3.53585 8.83962 -8.87909
266 2 7.07169 5.30377 8.83962 -5.09265
329 3 7.07169 3.53585 10.6075 -8.24249
330 1 8.83962 5.30377 10.6075 -8.39285
331 3 8.83962 3.53585 12.3755 -8.35609
332 1 7.07169 5.30377 12.3755 -8.87691
267 2 12.3755 3.53585 8.83962 -5.12858
268 1 10.6075 5.30377 8.83962 -9.07343
333 3 10.6075 3.53585 10.6075 -8.39816
334 1 12.3755 5.30377 10.6075 -8.98926
335 2 12.3755 3.53585 12.3755 -4.51013
336 3 10.6075 5.30377 12.3755 -8.31941
269 1 15.9113 3.53585 8.83962 -9.47854
270 3 14.1434 5.30377 8.83962 -8.78874
337 2 14.1434 3.53585 10.6075 -4.97366
338 2 15.9113 5.30377 10.6075 -4.92051
339 2 15.9113 3.53585 12.3755 -5.06809
340 1 14.1434 5.30377 12.3755 -9.13572
271 2 1.76792 7.07169 8.83962 -4.71737
272 2 0 8.83962 8.83962 -5.36873
341 2 0 7.07169 10.6075 -4.98637
342 2 1.76792 8.83962 10.6075 -4.45101
343 1 1.76792 7.07169 12.3755 -9.0033
344 1 0 8.83962 12.3755 -8.63691
273 2 5.30377 7.07169 8.83962 -4.65111
274 1 3.53585 8.83962 8.83962 -9.11251
345 1 3.53585 7.07169 10.6075 -9.70936
346 2 5.30377 8.83962 10.6075 -4.45006
347 2 5.30377 7.07169 12.3755 -4.41754
348 1 3.53585 8.83962 12.3755 -9.26669
275 2 8.83962 7.07169 8.83962 -4.71741
276 1 7.07169 8.83962 8.83962 -9.38245
349 1 7.07169 7.07169 10.6075 -9.68169
350 2 8.83962 8.83962 10.6075 -4.37527
351 1 8.83962 7.07169 12.3755 -8.78607
352 1 7.07169 8.83962 12.3755 -9.48472
277 2 12.3755 7.07169 8.83962 -4.69239
278 1 10.6075 8.83962 8.83962 -9.50335
353 2 10.6075 7.07169 10.6075 -4.92783
354 2 12.3755 8.83962 10.6075 -4.94254
355 1 12.3755 7.07169 12.3755 -8.68908
356 2 10.6075 8.83962 12.3755 -4.67438
279 3 15.9113 7.07169 8.83962 -8.51794
280 1 14.1434 8.83962 8.83962 -9.24628
357 1 14.1434 7.07169 10.6075 -8.76849
358 2 15.9113 8.83962 10.6075 -4.81041
359 2 15.9113 7.07169 12.3755 -4.58125
360 3 14.1434 8.83962 12.3755 -8.70235
281 3 1.76792 10.6075 8.83962 -8.20353
282 3 0 12.3755 8.83962 -8.08414
361 1 0 10.6075 10.6075 -8.40052
362 3 1.76792 12.3755 10.6075 -7.84181
363 3 1.76792 10.6075 12.3755 -8.11391
364 3 0 12.3755 12.3755 -7.83625
283 2 5.30377 10.6075 8.83962 -4.53829
284 3 3.53585 12.3755 8.83962 -8.25459
365 1 3.53585 10.6075 10.6075 -9.20188
366 2 5.30377 12.3755 10.6075 -4.63644
367 2 5.30377 10.6075 12.3755 -4.70729
368 3 3.53585 12.3755 12.3755 -8.11211
285 3 8.83962 10.6075 8.83962 -8.32608
286 2 7.07169 12.3755 8.83962 -4.99136
369 1 7.07169 10.6075 10.6075 -9.1529
370 3 8.83962 12.3755 10.6075 -8.59462
371 1 8.83962 10.6075 12.3755 -8.45423
372 1 7.07169 12.3755 12.3755 -8.82178
287 3 12.3755 10.6075 8.83962 -8.35261
288 2 10.6075 12.3755 8.83962 -4.78959
373 3 10.6075 10.6075 10.6075 -8.72645
374 1 12.3755 12.3755 10.6075 -8.46775
375 1 12.3755 10.6075 12.3755 -8.91297
376 3 10.6075 12.3755 12.3755 -8.12103
289 2 15.9113 10.6075 8.83962 -4.549
290 1 14.1434 12.3755 8.83962 -8.92779
377 2 14.1434 10.6075 10.6075 -4.34986
378 1 15.9113 12.3755 10.6075 -8.94532
379 1 15.9113 10.6075 12.3755 -9.19072
380 3 14.1434 12.3755 12.3755 -8.39822
291 1 1.76792 14.1434 8.83962 -8.34211
292 3 0 15.9113 8.83962 -8.00569
381 3 0 14.1434 10.6075 -7.96791
382 3 1.76792 15.9113 10.6075 -7.83876
383 1 1.76792 14.1434 12.3755 -7.6418
384 3 0 15.9113 12.3755 -8.37551
293 1 5.30377 14.1434 8.83962 -9.48469
294 2 3.53585 15.9113 8.83962 -4.47673
385 3 3.53585 14.1434 10.6075 -7.95435
386 2 5.30377 15.9113 10.6075 -4.39902
387 1 5.30377 14.1434 12.3755 -8.89246
388 3 3.53585 15.9113 12.3755 -8.33645
295 1 8.83962 14.1434 8.83962 -9.31444
296 3 7.07169 15.9113 8.83962 -8.56738
389 2 7.07169 14.1434 10.6075 -4.76572
390 2 8.83962 15.9113 10.6075 -4.28821
391 1 8.83962 14.1434 12.3755 -9.00897
392 1 7.07169 15.9113 12.3755 -9.01141
297 1 12.3755 14.1434 8.83962 -9.38582
298 1 10.6075 15.9113 8.83962 -9.02906
393 2 10.6075 14.1434 10.6075 -4.46608
394 2 12.3755 15.9113 10.6075 -5.07606
395 2 12.3755 14.1434 12.3755 -4.71064
396 1 10.6075 15.9113 12.3755 -9.29217
299 2 15.9113 14.1434 8.83962 -4.63994
300 2 14.1434 15.9113 8.83962 -5.35662
397 3 14.1434 14.1434 10.6075 -8.63129
398 1 15.9113 15.9113 10.6075 -9.20915
399 3 15.9113 14.1434 12.3755 -8.38949
400 1 14.1434 15.9113 12.3755 -8.55818
401 2 0 0 14.1434 -4.37689
402 3 1.76792 1.76792 14.1434 -8.47004
403 2 1.76792 0 15.9113 -5.3473
404 1 0 1.76792 15.9113 -9.72825
405 1 3.53585 0 14.1434 -8.29991
406 2 5.30377 1.76792 14.1434 -4.56354
407 2 5.30377 0 15.9113 -4.40408
408 3 3.53585 1.76792 15.9113 -8.63653
409 1 7.07169 0 14.1434 -8.84638
410 2 8.83962 1.76792 14.1434 -4.61054
411 2 8.83962 0 15.9113 -4.33901
412 3 7.07169 1.76792 15.9113 -8.50423
413 1 10.6075 0 14.1434 -9.20587
414 3 12.3755 1.76792 14.1434 -8.49517
415 3 12.3755 0 15.9113 -8.31125
416 2 10.6075 1.76792 15.9113 -4.23057
417 2 14.1434 0 14.1434 -4.37997
418 1 15.9113 1.76792 14.1434 -8.84771
419 3 15.9113 0 15.9113 -8.2712
420 1 14.1434 1.76792 15.9113 -8.7856
421 2 0 3.53585 14.1434 -4.21738
422 2 1.76792 5.30377 14.1434 -3.71718
423 1 1.76792 3.53585 15.9113 -9.61418
424 1 0 5.30377 15.9113 -9.42229
425 3 3.53585 3.53585 14.1434 -8.44806
426 2 5.30377 5.30377 14.1434 -4.3688
427 1 5.30377 3.53585 15.9113 -8.50034
428 1 3.53585 5.30377 15.9113 -8.55555
429 2 7.07169 3.53585 14.1434 -4.98933
430 2 8.83962 5.30377 14.1434 -4.33624
431 1 8.83962 3.53585 15.9113 -8.27363
432 3 7.07169 5.30377 15.9113 -8.56224
433 1 10.6075 3.53585 14.1434 -8.71193
434 3 12.3755 5.30377 14.1434 -8.3927
435 3 12.3755 3.53585 15.9113 -8.52447
436 3 10.6075 5.30377 15.9113 -8.17902
437 2 14.1434 3.53585 14.1434 -4.47481
438 1 15.9113 5.30377 14.1434 -9.33369
439 2 15.9113 3.53585 15.9113 -4.48333
440 1 14.1434 5.30377 15.9113 -9.14323
441 1 0 7.07169 14.1434 -8.06527
442 2 1.76792 8.83962 14.1434 -3.88913
443 1 1.76792 7.07169 15.9113 -9.21948
444 1 0 8.83962 15.9113 -8.94174
445 1 3.53585 7.07169 14.1434 -9.27286
446 2 5.30377 8.83962 14.1434 -4.66446
447 3 5.30377 7.07169 15.9113 -8.3047
448 2 3.53585 8.83962 15.9113 -5.06882
449 1 7.07169 7.07169 14.1434 -9.07136
450 2 8.83962 8.83962 14.1434 -4.29307
451 2 8.83962 7.07169 15.9113 -4.78063
452 1 7.07169 8.83962 15.9113 -8.3697
453 1 10.6075 7.07169 14.1434 -9.30615
454 2 12.3755 8.83962 14.1434 -4.56397
455 2 12.3755 7.07169 15.9113 -4.72206
456 3 10.6075 8.83962 15.9113 -8.57441
457 3 14.1434 7.07169 14.1434 -8.45404
458 1 15.9113 8.83962 14.1434 -8.77343
459 2 15.9113 7.07169 15.9113 -4.20176
460 1 14.1434 8.83962 15.9113 -9.20625
461 3 0 10.6075 14.1434 -8.22483
462 3 1.76792 12.3755 14.1434 -7.99662
463 3 1.76792 10.6075 15.9113 -8.18396
464 1 0 12.3755 15.9113 -8.34695
465 1 3.53585 10.6075 14.1434 -8.87852
466 2 5.30377 12.3755 14.1434 -4.41135
467 3 5.30377 10.6075 15.9113 -8.08453
468 1 3.53585 12.3755 15.9113 -8.05968
469 3 7.07169 10.6075 14.1434 -8.65013
470 3 8.83962 12.3755 14.1434 -8.37287
471 2 8.83962 10.6075 15.9113 -4.85865
472 1 7.07169 12.3755 15.9113 -9.89609
473 1 10.6075 10.6075 14.1434 -8.83895
474 3 12.3755 12.3755 14.1434 -8.19011
475 3 12.3755 10.6075 15.9113 -8.3295
476 2 10.6075 12.3755 15.9113 -4.96744
477 2 14.1434 10.6075 14.1434 -4.66353
478 2 15.9113 12.3755 14.1434 -4.91199
479 3 15.9113 10.6075 15.9113 -8.42593
480 1 14.1434 12.3755 15.9113 -8.6427
481 3 0 14.1434 14.1434 -8.1861
482 2 1.76792 15.9113 14.1434 -4.54142
483 2 1.76792 14.1434 15.9113 -4.7501
484 1 0 15.9113 15.9113 -8.83501
485 3 3.53585 14.1434 14.1434 -8.10799
486 3 5.30377 15.9113 14.1434 -8.35635
487 2 5.30377 14.1434 15.9113 -4.8098
488 1 3.53585 15.9113 15.9113 -8.46676
489 2 7.07169 14.1434 14.1434 -4.53277
490 2 8.83962 15.9113 14.1434 -4.2643
491 2 8.83962 14.1434 15.9113 -5.42358
492 1 7.07169 15.9113 15.9113 -8.73534
493 1 10.6075 14.1434 14.1434 -9.02236
494 2 12.3755 15.9113 14.1434 -4.85324
495 3 12.3755 14.1434 15.9113 -8.06807
496 3 10.6075 15.9113 15.9113 -8.76351
497 1 14.1434 14.1434 14.1434 -8.27454
498 3 15.9113 15.9113 14.1434 -8.17859
499 3 15.9113 14.1434 15.9113 -8.24385
500 2 14.1434 15.9113 15.9113 -4.69341
501 2 0 0 17.6792 -4.39521
502 2 1.76792 1.76792 17.6792 -5.28998
503 1 1.76792 0 19.4472 -9.95713
504 1 0 1.76792 19.4472 -8.92475
601 2 0 0 21.2151 -3.90252
602 1 1.76792 1.76792 21.2151 -9.27686
505 2 3.53585 0 17.6792 -5.51835
506 1 5.30377 1.76792 17.6792 -9.26184
507 3 5.30377 0 19.4472 -9.07414
508 2 3.53585 1.76792 19.4472 -5.1219
605 2 3.53585 0 21.2151 -4.57138
606 1 5.30377 1.76792 21.2151 -9.8656
509 1 7.07169 0 17.6792 -9.12834
510 1 8.83962 1.76792 17.6792 -8.5756
511 2 8.83962 0 19.4472 -4.25092
512 2 7.07169 1.76792 19.4472 -4.49172
609 1 7.07169 0 21.2151 -9.45855
610 1 8.83962 1.76792 21.2151 -10.1161
513 1 10.6075 0 17.6792 -8.43105
514 2 12.3755 1.76792 17.6792 -4.3564
515 1 12.3755 0 19.4472 -8.45667
516 3 10.6075 1.76792 19.4472 -8.44182
613 2 10.6075 0 21.2151 -4.62507
614 3 12.3755 1.76792 21.2151 -8.27288
517 3 14.1434 0 17.6792 -8.53801
518 3 15.9113 1.76792 17.6792 -8.25735
519 1 15.9113 0 19.4472 -9.07406
520 2 14.1434 1.76792 19.4472 -4.18129
617 1 14.1434 0 21.2151 -8.1031
618 2 15.9113 1.76792 21.2151 -4.41789
521 2 0 3.53585 17.6792 -3.97087
522 2 1.76792 5.30377 17.6792 -4.14111
523 1 1.76792 3.53585 19.4472 -10.0792
524 1 0 5.30377 19.4472 -9.42254
621 2 0 3.53585 21.2151 -4.54346
622 2 1.76792 5.30377 21.2151 -4.48886
525 2 3.53585 3.53585 17.6792 -4.48681
526 3 5.30377 5.30377 17.6792 -8.12958
527 2 5.30377 3.53585 19.4472 -5.12846
528 1 3.53585 5.30377 19.4472 -9.30551
625 2 3.53585 3.53585 21.2151 -4.64789
626 3 5.30377 5.30377 21.2151 -8.46928
529 3 7.07169 3.53585 17.6792 -8.15225
530 3 8.83962 5.30377 17.6792 -8.29124
531 3 8.83962 3.53585 19.4472 -8.58528
532 1 7.07169 5.30377 19.4472 -8.29869
629 2 7.07169 3.53585 21.2151 -4.63363
630 1 8.83962 5.30377 21.2151 -9.00675
533 1 10.6075 3.53585 17.6792 -8.5037
534 2 12.3755 5.30377 17.6792 -4.2713
535 1 12.3755 3.53585 19.4472 -9.16058
536 2 10.6075 5.30377 19.4472 -4.46345
633 2 10.6075 3.53585 21.2151 -5.09658
634 2 12.3755 5.30377 21.2151 -4.48192
537 3 14.1434 3.53585 17.6792 -8.43712
538 3 15.9113 5.30377 17.6792 -8.32939
539 1 15.9113 3.53585 19.4472 -8.64772
540 3 14.1434 5.30377 19.4472 -8.33999
637 1 14.1434 3.53585 21.2151 -8.15047
638 2 15.9113 5.30377 21.2151 -4.78274
541 2 0 7.07169 17.6792 -4.41485
542 2 1.76792 8.83962 17.6792 -4.93691
543 1 1.76792 7.07169 19.4472 -9.32078
544 3 0 8.83962 19.4472 -8.77935
641 1 0 7.07169 21.2151 -8.65348
642 3 1.76792 8.83962 21.2151 -8.4006
545 3 3.53585 7.07169 17.6792 -8.54921
546 1 5.30377 8.83962 17.6792 -8.03532
547 3 5.30377 7.07169 19.4472 -8.04452
548 2 3.53585 8.83962 19.4472 -4.68781
645 2 3.53585 7.07169 21.2151 -4.77755
646 1 5.30377 8.83962 21.2151 -9.08336
549 3 7.07169 7.07169 17.6792 -7.96005
550 3 8.83962 8.83962 17.6792 -8.42539
551 2 8.83962 7.07169 19.4472 -4.5723
552 3 7.07169 8.83962 19.4472 -8.36012
649 3 7.07169 7.07169 21.2151 -8.22076
650 1 8.83962 8.83962 21.2151 -9.41064
553 1 10.6075 7.07169 17.6792 -9.20371
554 3 12.3755 8.83962 17.6792 -8.14476
555 1 12.3755 7.07169 19.4472 -8.66402
556 2 10.6075 8.83962 19.4472 -3.87469
653 1 10.6075 7.07169 21.2151 -9.03955
654 3 12.3755 8.83962 21.2151 -8.5284
557 3 14.1434 7.07169 17.6792 -8.3649
558 2 15.9113 8.83962 17.6792 -4.63467
559 1 15.9113 7.07169 19.4472 -8.96956
560 3 14.1434 8.83962 19.4472 -8.32839
657 3 14.1434 7.07169 21.2151 -8.58264
658 1 15.9113 8.83962 21.2151 -8.77756
561 3 0 10.6075 17.6792 -8.62387
562 3 1.76792 12.3755 17.6792 -8.0338
563 2 1.76792 10.6075 19.4472 -4.92557
564 3 0 12.3755 19.4472 -8.02495
661 1 0 10.6075 21.2151 -8.7807
662 3 1.76792 12.3755 21.2151 -8.07727
565 1 3.53585 10.6075 17.6792 -8.51573
566 3 5.30377 12.3755 17.6792 -8.36357
567 2 5.30377 10.6075 19.4472 -4.91912
568 3 3.53585 12.3755 19.4472 -8.11113
665 1 3.53585 10.6075 21.2151 -9.02025
666 2 5.30377 12.3755 21.2151 -5.06725
569 3 7.07169 10.6075 17.6792 -8.3237
570 2 8.83962 12.3755 17.6792 -5.03878
571 1 8.83962 10.6075 19.4472 -9.09427
572 2 7.07169 12.3755 19.4472 -5.25081
669 2 7.07169 10.6075 21.2151 -5.12476
670 2 8.83962 12.3755 21.2151 -5.13406
573 1 10.6075 10.6075 17.6792 -8.45799
574 3 12.3755 12.3755 17.6792 -8.19308
575 1 12.3755 10.6075 19.4472 -8.58947
576 3 10.6075 12.3755 19.4472 -8.36742
673 2 10.6075 10.6075 21.2151 -5.22036
674 3 12.3755 12.3755 21.2151 -8.19051
577 2 14.1434 10.6075 17.6792 -4.41323
578 2 15.9113 12.3755 17.6792 -4.48453
579 1 15.9113 10.6075 19.4472 -9.86292
580 1 14.1434 12.3755 19.4472 -8.1558
677 2 14.1434 10.6075 21.2151 -3.85648
678 2 15.9113 12.3755 21.2151 -4.17773
581 2 0 14.1434 17.6792 -4.75692
582 3 1.76792 15.9113 17.6792 -8.17108
583 1 1.76792 14.1434 19.4472 -8.35534
584 3 0 15.9113 19.4472 -8.32619
681 3 0 14.1434 21.2151 -8.37695
682 2 1.76792 15.9113 21.2151 -4.67155
585 3 3.53585 14.1434 17.6792 -8.06614
586 3 5.30377 15.9113 17.6792 -7.96315
587 1 5.30377 14.1434 19.4472 -8.52659
588 3 3.53585 15.9113 19.4472 -7.92541
685 2 3.53585 14.1434 21.2151 -4.81242
686 3 5.30377 15.9113 21.2151 -8.05324
589 2 7.07169 14.1434 17.6792 -4.52872
590 1 8.83962 15.9113 17.6792 -8.7252
591 1 8.83962 14.1434 19.4472 -8.99832
592 3 7.07169 15.9113 19.4472 -8.08141
689 3 7.07169 14.1434 21.2151 -8.33365
690 3 8.83962 15.9113 21.2151 -8.08576
593 2 10.6075 14.1434 17.6792 -5.30452
594 1 12.3755 15.9113 17.6792 -8.50869
595 3 12.3755 14.1434 19.4472 -8.17966
596 2 10.6075 15.9113 19.4472 -4.52724
693 1 10.6075 14.1434 21.2151 -8.66219
694 2 12.3755 15.9113 21.2151 -4.91217
597 3 14.1434 14.1434 17.6792 -7.93467
598 3 15.9113 15.9113 17.6792 -8.00965
599 1 15.9113 14.1434 19.4472 -8.27315
600 3 14.1434 15.9113 19.4472 -7.99405
697 3 14.1434 14.1434 21.2151 -8.16888
698 3 15.9113 15.9113 21.2151 -7.76399
603 1 1.76792 0 22.983 -8.90825
604 3 0 1.76792 22.983 -8.15623
701 2 0 0 24.7509 -4.57754
702 3 1.76792 1.76792 24.7509 -8.25554
607 1 5.30377 0 22.983 -9.76028
608 2 3.53585 1.76792 22.983 -4.54546
703 2 3.53585 0 24.7509 -4.65142
704 2 5.30377 1.76792 24.7509 -5.54836
611 2 8.83962 0 22.983 -5.06707
612 2 7.07169 1.76792 22.983 -5.05966
705 2 7.07169 0 24.7509 -4.83285
706 1 8.83962 1.76792 24.7509 -10.0637
615 1 12.3755 0 22.983 -7.72711
616 3 10.6075 1.76792 22.983 -8.43263
707 3 10.6075 0 24.7509 -8.5083
708 3 12.3755 1.76792 24.7509 -8.33326
619 3 15.9113 0 22.983 -8.30101
620 3 14.1434 1.76792 22.983 -7.88908
709 3 14.1434 0 24.7509 -8.19263
710 1 15.9113 1.76792 24.7509 -8.22668
623 1 1.76792 3.53585 22.983 -9.46134
624 2 0 5.30377 22.983 -4.67355
711 1 0 3.53585 24.7509 -8.04171
712 2 1.76792 5.30377 24.7509 -4.54783
627 1 5.30377 3.53585 22.983 -9.29073
628 3 3.53585 5.30377 22.983 -8.66517
713 3 3.53585 3.53585 24.7509 -8.49974
714 1 5.30377 5.30377 24.7509 -8.24537
631 2 8.83962 3.53585 22.983 -5.05782
632 1 7.07169 5.30377 22.983 -8.52284
715 2 7.07169 3.53585 24.7509 -4.48551
716 1 8.83962 5.30377 24.7509 -9.46289
635 1 12.3755 3.53585 22.983 -9.18324
636 3 10.6075 5.30377 22.983 -8.90955
717 2 10.6075 3.53585 24.7509 -4.59579
718 2 12.3755 5.30377 24.7509 -4.50002
639 1 15.9113 3.53585 22.983 -8.36708
640 1 14.1434 5.30377 22.983 -9.29906
719 2 14.1434 3.53585 24.7509 -4.62278
720 2 15.9113 5.30377 24.7509 -4.79352
643 1 1.76792 7.07169 22.983 -9.41616
644 3 0 8.83962 22.983 -8.42966
721 2 0 7.07169 24.7509 -5.42009
722 3 1.76792 8.83962 24.7509 -8.35334
647 3 5.30377 7.07169 22.983 -8.3044
648 2 3.53585 8.83962 22.983 -4.49628
723 3 3.53585 7.07169 24.7509 -8.13347
724 1 5.30377 8.83962 24.7509 -9.0907
651 2 8.83962 7.07169 22.983 -4.08799
652 2 7.07169 8.83962 22.983 -4.89489
725 3 7.07169 7.07169 24.7509 -8.35151
726 1 8.83962 8.83962 24.7509 -10.1286
655 2 12.3755 7.07169 22.983 -4.95596
656 3 10.6075 8.83962 22.983 -8.72415
727 1 10.6075 7.07169 24.7509 -9.63729
728 2 12.3755 8.83962 24.7509 -4.86687
659 2 15.9113 7.07169 22.983 -5.01347
660 1 14.1434 8.83962 22.983 -9.18477
729 1 14.1434 7.07169 24.7509 -9.84265
730 2 15.9113 8.83962 24.7509 -4.56993
663 2 1.76792 10.6075 22.983 -4.74949
664 2 0 12.3755 22.983 -4.18092
731 1 0 10.6075 24.7509 -8.3715
732 3 1.76792 12.3755 24.7509 -7.9743
667 3 5.30377 10.6075 22.983 -8.16539
668 3 3.53585 12.3755 22.983 -8.204
733 3 3.53585 10.6075 24.7509 -8.23175
734 1 5.30377 12.3755 24.7509 -7.96443
671 2 8.83962 10.6075 22.983 -5.40414
672 1 7.07169 12.3755 22.983 -8.97159
735 2 7.07169 10.6075 24.7509 -4.6084
736 1 8.83962 12.3755 24.7509 -8.82193
675 1 12.3755 10.6075 22.983 -9.60903
676 2 10.6075 12.3755 22.983 -5.36156
737 2 10.6075 10.6075 24.7509 -5.0543
738 2 12.3755 12.3755 24.7509 -4.84504
679 1 15.9113 10.6075 22.983 -9.03985
680 1 14.1434 12.3755 22.983 -9.21657
739 2 14.1434 10.6075 24.7509 -4.27106
740 3 15.9113 12.3755 24.7509 -8.50316
683 1 1.76792 14.1434 22.983 -9.06363
684 2 0 15.9113 22.983 -4.98867
741 3 0 14.1434 24.7509 -8.24132
742 2 1.76792 15.9113 24.7509 -4.95656
687 3 5.30377 14.1434 22.983 -8.12471
688 2 3.53585 15.9113 22.983 -5.28684
743 3 3.53585 14.1434 24.7509 -7.97328
744 1 5.30377 15.9113 24.7509 -8.56122
691 3 8.83962 14.1434 22.983 -8.30303
692 1 7.07169 15.9113 22.983 -7.4937
745 2 7.07169 14.1434 24.7509 -3.88818
746 3 8.83962 15.9113 24.7509 -8.22822
695 3 12.3755 14.1434 22.983 -8.29306
696 2 10.6075 15.9113 22.983 -4.68774
747 3 10.6075 14.1434 24.7509 -8.33864
748 1 12.3755 15.9113 24.7509 -8.90245
699 3 15.9113 14.1434 22.983 -8.00904
700 1 14.1434 15.9113 22.983 -8.31456
749 2 14.1434 14.1434 24.7509 -4.39132
750 1 15.9113 15.9113 24.7509 -8.60593
751 3 1.76792 0 26.5189 -7.96655
752 3 0 1.76792 26.5189 -7.96562
801 1 0 0 28.2868 -7.92031
802 3 1.76792 1.76792 28.2868 -8.2699
803 2 1.76792 0 30.0547 -5.12023
804 3 0 1.76792 30.0547 -7.89976
753 2 5.30377 0 26.5189 -5.06428
754 1 3.53585 1.76792 26.5189 -9.32511
805 2 3.53585 0 28.2868 -5.15679
806 3 5.30377 1.76792 28.2868 -8.25511
807 1 5.30377 0 30.0547 -9.30564
808 2 3.53585 1.76792 30.0547 -4.88784
755 2 8.83962 0 26.5189 -4.05793
756 1 7.07169 1.76792 26.5189 -9.74214
809 3 7.07169 0 28.2868 -8.54238
810 1 8.83962 1.76792 28.2868 -9.15045
811 2 8.83962 0 30.0547 -4.48011
812 3 7.07169 1.76792 30.0547 -8.22498
757 2 12.3755 0 26.5189 -5.0899
758 1 10.6075 1.76792 26.5189 -9.53209
813 2 10.6075 0 28.2868 -4.83584
814 2 12.3755 1.76792 28.2868 -4.78259
815 2 12.3755 0 30.0547 -4.9587
816 1 10.6075 1.76792 30.0547 -8.92248
759 2 15.9113 0 26.5189 -4.15746
760 3 14.1434 1.76792 26.5189 -8.48682
817 1 14.1434 0 28.2868 -9.52997
818 1 15.9113 1.76792 28.2868 -8.93472
819 2 15.9113 0 30.0547 -4.67571
820 3 14.1434 1.76792 30.0547 -8.39865
761 3 1.76792 3.53585 26.5189 -8.25325
762 2 0 5.30377 26.5189 -4.99725
821 1 0 3.53585 28.2868 -8.17728
822 2 1.76792 5.30377 28.2868 -4.38539
823 1 1.76792 3.53585 30.0547 -7.9567
824 3 0 5.30377 30.0547 -8.09762
763 2 5.30377 3.53585 26.5189 -4.90105
764 1 3.53585 5.30377 26.5189 -9.30065
825 2 3.53585 3.53585 28.2868 -4.84377
826 2 5.30377 5.30377 28.2868 -5.26119
827 1 5.30377 3.53585 30.0547 -8.73852
828 3 3.53585 5.30377 30.0547 -8.32428
765 2 8.83962 3.53585 26.5189 -4.26972
766 1 7.07169 5.30377 26.5189 -9.7022
829 3 7.07169 3.53585 28.2868 -8.46106
830 1 8.83962 5.30377 28.2868 -9.97726
831 3 8.83962 3.53585 30.0547 -8.51233
832 2 7.07169 5.30377 30.0547 -4.90604
767 1 12.3755 3.53585 26.5189 -8.91501
768 1 10.6075 5.30377 26.5189 -9.59333
833 2 10.6075 3.53585 28.2868 -4.45047
834 3 12.3755 5.30377 28.2868 -8.45146
835 1 12.3755 3.53585 30.0547 -8.91916